<?xml version="1.0" encoding="UTF-8"?>

<!-- generated on 2026-04-17T10:50:27.456383+05:30 by Eclipse SUMO GUI 1.26.0
<sumoConfiguration xmlns:xsi="http://www.w3.org/2001/XMLSchema-instance" xsi:noNamespaceSchemaLocation="http://sumo.dlr.de/xsd/sumoConfiguration.xsd">

    <input>
        <net-file value="sumo_files/real_map/osm.net.xml.gz"/>
        <route-files value="sumo_files/real_map/osm.passenger.trips.xml"/>
        <additional-files value="sumo_files/real_map/osm.poly.xml.gz,sumo_files/real_map/output.add.xml"/>
    </input>

    <output>
        <tripinfo-output value="sumo_files/real_map/tripinfos.xml"/>
        <statistic-output value="sumo_files/real_map/stats.xml"/>
    </output>

    <processing>
        <ignore-route-errors value="true"/>
        <tls.actuated.jam-threshold value="30"/>
    </processing>

    <routing>
        <device.rerouting.adaptation-steps value="18"/>
        <device.rerouting.adaptation-interval value="10"/>
    </routing>

    <report>
        <verbose value="true"/>
        <duration-log.statistics value="true"/>
        <no-step-log value="true"/>
    </report>

    <traci_server>
        <remote-port value="61595"/>
    </traci_server>

    <gui_only>
        <gui-settings-file value="sumo_files/real_map/osm.view.xml"/>
    </gui_only>

</sumoConfiguration>
-->

<meandata xmlns:xsi="http://www.w3.org/2001/XMLSchema-instance" xsi:noNamespaceSchemaLocation="http://sumo.dlr.de/xsd/meandata_file.xsd">
    <interval begin="0.00" end="500.00" id="wizard_example">
        <edge id="-1014276813#0" sampledSeconds="420.79" traveltime="72.03" overlapTraveltime="77.14" density="22.86" overlapDensity="23.06" laneDensity="22.86" occupancy="11.42" waitingTime="346.00" timeLoss="404.25" speed="0.54" speedRelative="0.04" departed="1" arrived="0" entered="7" left="3" laneChangedFrom="0" laneChangedTo="0" flow="41.70"/>
        <edge id="-1014276813#1" sampledSeconds="170.30" traveltime="30.56" overlapTraveltime="30.64" density="16.90" overlapDensity="17.29" laneDensity="16.90" occupancy="8.55" waitingTime="143.00" timeLoss="160.65" speed="0.81" speedRelative="0.06" departed="8" arrived="0" entered="0" left="6" laneChangedFrom="0" laneChangedTo="0" flow="39.22"/>
        <edge id="-1049316088#2" sampledSeconds="0.00" departed="0" arrived="0" entered="0" left="0" laneChangedFrom="0" laneChangedTo="0"/>
        <edge id="-1066895467#2" sampledSeconds="0.00" departed="0" arrived="0" entered="0" left="0" laneChangedFrom="0" laneChangedTo="0"/>
        <edge id="-1087129032#1" sampledSeconds="6.52" traveltime="5.77" overlapTraveltime="6.52" density="0.18" overlapDensity="0.20" laneDensity="0.18" occupancy="0.09" waitingTime="0.00" timeLoss="1.22" speed="10.66" speedRelative="0.77" departed="0" arrived="0" entered="1" left="1" laneChangedFrom="0" laneChangedTo="0" flow="7.20"/>
        <edge id="-1087129032#2" sampledSeconds="1.81" traveltime="1.44" overlapTraveltime="1.81" density="0.15" overlapDensity="0.19" laneDensity="0.15" occupancy="0.08" waitingTime="0.00" timeLoss="0.09" speed="13.35" speedRelative="0.96" departed="0" arrived="0" entered="1" left="1" laneChangedFrom="0" laneChangedTo="0" flow="7.20"/>
        <edge id="-1089717992" sampledSeconds="29.88" traveltime="30.70" overlapTraveltime="32.05" density="0.81" overlapDensity="0.85" laneDensity="0.81" occupancy="0.42" waitingTime="0.00" timeLoss="8.00" speed="2.35" speedRelative="0.84" departed="1" arrived="0" entered="0" left="1" laneChangedFrom="0" laneChangedTo="0" flow="6.68"/>
        <edge id="-1093604005#0" sampledSeconds="0.00" departed="0" arrived="0" entered="0" left="0" laneChangedFrom="0" laneChangedTo="0"/>
        <edge id="-1093604005#1" sampledSeconds="0.00" departed="0" arrived="0" entered="0" left="0" laneChangedFrom="0" laneChangedTo="0"/>
        <edge id="-1093707705#0" sampledSeconds="8.26" traveltime="8.18" overlapTraveltime="8.71" density="0.22" overlapDensity="0.22" laneDensity="0.22" occupancy="0.10" waitingTime="0.00" timeLoss="1.78" speed="9.05" speedRelative="0.65" departed="0" arrived="1" entered="1" left="0" laneChangedFrom="0" laneChangedTo="0" flow="7.20"/>
        <edge id="-1093707705#1" sampledSeconds="0.00" departed="0" arrived="0" entered="0" left="0" laneChangedFrom="0" laneChangedTo="0"/>
        <edge id="-1093707706" sampledSeconds="3.78" traveltime="3.69" overlapTraveltime="4.35" density="0.18" overlapDensity="0.22" laneDensity="0.18" occupancy="0.10" waitingTime="0.00" timeLoss="1.30" speed="8.94" speedRelative="0.64" departed="1" arrived="0" entered="0" left="1" laneChangedFrom="0" laneChangedTo="0" flow="6.12"/>
        <edge id="-1093707708#1" sampledSeconds="263.86" traveltime="19.39" overlapTraveltime="20.52" density="9.70" overlapDensity="10.12" laneDensity="9.70" occupancy="4.96" waitingTime="79.00" timeLoss="202.68" speed="2.78" speedRelative="0.20" departed="17" arrived="0" entered="0" left="11" laneChangedFrom="0" laneChangedTo="0" flow="93.84"/>
        <edge id="-1094091829" sampledSeconds="11.95" traveltime="12.08" overlapTraveltime="13.90" density="0.64" overlapDensity="0.76" laneDensity="0.64" occupancy="0.36" waitingTime="0.00" timeLoss="2.40" speed="2.62" speedRelative="0.94" departed="1" arrived="0" entered="0" left="1" laneChangedFrom="0" laneChangedTo="0" flow="6.03"/>
        <edge id="-1094093752" sampledSeconds="0.00" departed="0" arrived="0" entered="0" left="0" laneChangedFrom="0" laneChangedTo="0"/>
        <edge id="-1094106670" sampledSeconds="0.00" departed="0" arrived="0" entered="0" left="0" laneChangedFrom="0" laneChangedTo="0"/>
        <edge id="-1096187536#1" sampledSeconds="0.00" departed="0" arrived="0" entered="0" left="0" laneChangedFrom="0" laneChangedTo="0"/>
        <edge id="-1096795617" sampledSeconds="0.00" departed="0" arrived="0" entered="0" left="0" laneChangedFrom="0" laneChangedTo="0"/>
        <edge id="-1098770446" sampledSeconds="0.00" departed="0" arrived="0" entered="0" left="0" laneChangedFrom="0" laneChangedTo="0"/>
        <edge id="-1098770448" sampledSeconds="1.91" traveltime="10.30" overlapTraveltime="12.60" density="0.17" overlapDensity="0.17" laneDensity="0.17" occupancy="0.04" waitingTime="0.00" timeLoss="0.31" speed="2.17" speedRelative="0.78" departed="0" arrived="0" entered="1" left="0" laneChangedFrom="0" laneChangedTo="0" flow="1.33"/>
        <edge id="-1098787264#0" sampledSeconds="87.81" traveltime="6.53" overlapTraveltime="7.32" density="3.90" overlapDensity="4.38" laneDensity="3.90" occupancy="1.96" waitingTime="0.00" timeLoss="40.55" speed="6.17" speedRelative="0.44" departed="0" arrived="0" entered="12" left="12" laneChangedFrom="0" laneChangedTo="0" flow="86.40"/>
        <edge id="-1098787264#1" sampledSeconds="14.22" traveltime="0.05" overlapTraveltime="1.34" density="0.54" overlapDensity="133.33" laneDensity="0.54" occupancy="2.80" waitingTime="1.00" timeLoss="9.92" speed="3.88" speedRelative="0.28" departed="10" arrived="0" entered="1" left="11" laneChangedFrom="0" laneChangedTo="0" flow="7.20"/>
        <edge id="-1098787277#1" sampledSeconds="0.00" departed="0" arrived="0" entered="0" left="0" laneChangedFrom="0" laneChangedTo="0"/>
        <edge id="-1113076998#2" sampledSeconds="0.00" departed="0" arrived="0" entered="0" left="0" laneChangedFrom="0" laneChangedTo="0"/>
        <edge id="-111997550#1" sampledSeconds="0.00" departed="0" arrived="0" entered="0" left="0" laneChangedFrom="0" laneChangedTo="0"/>
        <edge id="-111997552#1" sampledSeconds="0.00" departed="0" arrived="0" entered="0" left="0" laneChangedFrom="0" laneChangedTo="0"/>
        <edge id="-112028488" sampledSeconds="8.27" traveltime="8.13" overlapTraveltime="8.52" density="0.17" overlapDensity="0.17" laneDensity="0.17" occupancy="0.08" waitingTime="0.00" timeLoss="1.57" speed="11.92" speedRelative="0.86" departed="0" arrived="1" entered="1" left="0" laneChangedFrom="0" laneChangedTo="0" flow="7.20"/>
        <edge id="-112028489" sampledSeconds="15.95" traveltime="15.57" overlapTraveltime="16.42" density="0.17" overlapDensity="0.18" laneDensity="0.17" occupancy="0.09" waitingTime="0.00" timeLoss="1.74" speed="10.87" speedRelative="0.78" departed="1" arrived="0" entered="0" left="1" laneChangedFrom="0" laneChangedTo="0" flow="6.99"/>
        <edge id="-112028491#1" sampledSeconds="235.46" traveltime="9.80" overlapTraveltime="10.70" density="5.71" overlapDensity="6.23" laneDensity="5.71" occupancy="2.92" waitingTime="0.00" timeLoss="98.15" speed="7.53" speedRelative="0.54" departed="0" arrived="0" entered="22" left="22" laneChangedFrom="0" laneChangedTo="0" flow="158.40"/>
        <edge id="-112028491#3" sampledSeconds="489.29" traveltime="23.32" overlapTraveltime="23.73" density="3.45" overlapDensity="3.51" laneDensity="3.45" occupancy="1.74" waitingTime="0.00" timeLoss="83.49" speed="11.95" speedRelative="0.86" departed="21" arrived="0" entered="0" left="21" laneChangedFrom="0" laneChangedTo="0" flow="148.43"/>
        <edge id="-112028497#2" sampledSeconds="0.00" departed="0" arrived="0" entered="0" left="0" laneChangedFrom="0" laneChangedTo="0"/>
        <edge id="-112028502" sampledSeconds="0.00" departed="0" arrived="0" entered="0" left="0" laneChangedFrom="0" laneChangedTo="0"/>
        <edge id="-1123304172" sampledSeconds="9.05" overlapTraveltime="1.11" density="0.00" overlapDensity="16.02" laneDensity="0.00" occupancy="1.63" waitingTime="0.00" timeLoss="5.42" speed="5.52" speedRelative="0.40" departed="10" arrived="0" entered="0" left="10" laneChangedFrom="0" laneChangedTo="0" flow="0.00"/>
        <edge id="-1125385914" sampledSeconds="6.59" traveltime="6.27" overlapTraveltime="6.70" density="0.18" overlapDensity="0.19" laneDensity="0.18" occupancy="0.09" waitingTime="0.00" timeLoss="0.84" speed="11.12" speedRelative="0.80" departed="0" arrived="1" entered="1" left="0" laneChangedFrom="0" laneChangedTo="0" flow="7.20"/>
        <edge id="-1125692659#1" sampledSeconds="34.05" traveltime="35.31" overlapTraveltime="36.64" density="0.97" overlapDensity="1.01" laneDensity="0.97" occupancy="0.50" waitingTime="0.00" timeLoss="9.56" speed="1.97" speedRelative="0.71" departed="1" arrived="0" entered="0" left="1" laneChangedFrom="0" laneChangedTo="0" flow="6.65"/>
        <edge id="-1125692660#0" sampledSeconds="18.71" traveltime="0.03" overlapTraveltime="0.72" density="8.10" overlapDensity="133.33" laneDensity="8.10" occupancy="3.60" waitingTime="0.00" timeLoss="8.83" speed="7.23" speedRelative="0.52" departed="0" arrived="0" entered="26" left="26" laneChangedFrom="0" laneChangedTo="0" flow="187.20"/>
        <edge id="-1125692660#1" sampledSeconds="0.00" departed="0" arrived="0" entered="0" left="0" laneChangedFrom="0" laneChangedTo="0"/>
        <edge id="-1125692661#1" sampledSeconds="1947.04" traveltime="98.22" overlapTraveltime="100.69" density="42.75" overlapDensity="43.27" laneDensity="42.75" occupancy="21.39" waitingTime="1270.00" timeLoss="1806.09" speed="0.94" speedRelative="0.07" departed="0" arrived="0" entered="25" left="15" laneChangedFrom="0" laneChangedTo="0" flow="141.02"/>
        <edge id="-1125877418#1" sampledSeconds="0.00" departed="0" arrived="0" entered="0" left="0" laneChangedFrom="0" laneChangedTo="0"/>
        <edge id="-1126139654" sampledSeconds="0.00" departed="0" arrived="0" entered="0" left="0" laneChangedFrom="0" laneChangedTo="0"/>
        <edge id="-112657835#2" sampledSeconds="217.46" traveltime="19.67" overlapTraveltime="20.38" density="2.96" overlapDensity="3.04" laneDensity="2.96" occupancy="1.47" waitingTime="0.00" timeLoss="36.76" speed="7.25" speedRelative="0.87" departed="0" arrived="0" entered="12" left="8" laneChangedFrom="0" laneChangedTo="0" flow="77.49"/>
        <edge id="-112657835#4" sampledSeconds="109.40" traveltime="8.45" overlapTraveltime="9.12" density="3.23" overlapDensity="3.49" laneDensity="3.23" occupancy="1.62" waitingTime="0.00" timeLoss="13.60" speed="7.43" speedRelative="0.89" departed="0" arrived="0" entered="12" left="12" laneChangedFrom="0" laneChangedTo="0" flow="86.40"/>
        <edge id="-112657835#5" sampledSeconds="48.76" traveltime="3.40" overlapTraveltime="4.06" density="3.23" overlapDensity="3.87" laneDensity="3.23" occupancy="1.61" waitingTime="0.00" timeLoss="6.01" speed="7.44" speedRelative="0.89" departed="0" arrived="0" entered="12" left="12" laneChangedFrom="0" laneChangedTo="0" flow="86.40"/>
        <edge id="-112657835#6" sampledSeconds="26.58" traveltime="1.55" overlapTraveltime="2.21" density="3.28" overlapDensity="4.68" laneDensity="3.28" occupancy="1.63" waitingTime="0.00" timeLoss="3.46" speed="7.38" speedRelative="0.89" departed="0" arrived="0" entered="12" left="12" laneChangedFrom="0" laneChangedTo="0" flow="86.40"/>
        <edge id="-112657835#7" sampledSeconds="93.63" traveltime="7.14" overlapTraveltime="7.80" density="3.20" overlapDensity="3.49" laneDensity="3.20" occupancy="1.59" waitingTime="0.00" timeLoss="10.70" speed="7.52" speedRelative="0.90" departed="0" arrived="0" entered="12" left="12" laneChangedFrom="0" laneChangedTo="0" flow="86.40"/>
        <edge id="-112657835#8" sampledSeconds="88.29" traveltime="44.19" overlapTraveltime="44.77" density="0.49" overlapDensity="0.49" laneDensity="0.49" occupancy="0.24" waitingTime="0.00" timeLoss="5.99" speed="8.11" speedRelative="0.97" departed="2" arrived="0" entered="0" left="2" laneChangedFrom="0" laneChangedTo="0" flow="14.20"/>
        <edge id="-112657837#1" sampledSeconds="448.79" traveltime="22.20" overlapTraveltime="23.30" density="13.27" overlapDensity="13.70" laneDensity="13.27" occupancy="6.61" waitingTime="174.00" timeLoss="255.85" speed="3.03" speedRelative="0.44" departed="0" arrived="0" entered="22" left="15" laneChangedFrom="0" laneChangedTo="0" flow="141.01"/>
        <edge id="-112657837#2" sampledSeconds="278.41" traveltime="11.25" overlapTraveltime="12.11" density="7.85" overlapDensity="8.44" laneDensity="7.85" occupancy="3.93" waitingTime="0.00" timeLoss="39.87" speed="5.86" speedRelative="0.84" departed="0" arrived="1" entered="23" left="22" laneChangedFrom="0" laneChangedTo="0" flow="165.60"/>
        <edge id="-112657837#7" sampledSeconds="619.47" traveltime="26.46" overlapTraveltime="27.32" density="7.86" overlapDensity="8.12" laneDensity="7.86" occupancy="3.96" waitingTime="0.00" timeLoss="97.00" speed="5.77" speedRelative="0.83" departed="10" arrived="0" entered="13" left="23" laneChangedFrom="0" laneChangedTo="0" flow="163.19"/>
        <edge id="-1136281758#5" sampledSeconds="16.86" traveltime="7.99" overlapTraveltime="8.43" density="0.33" overlapDensity="0.35" laneDensity="0.33" occupancy="0.16" waitingTime="0.00" timeLoss="2.19" speed="12.16" speedRelative="0.88" departed="0" arrived="1" entered="2" left="1" laneChangedFrom="0" laneChangedTo="0" flow="14.40"/>
        <edge id="-1136281758#7" sampledSeconds="6.26" traveltime="5.95" overlapTraveltime="6.26" density="0.16" overlapDensity="0.17" laneDensity="0.16" occupancy="0.08" waitingTime="0.00" timeLoss="1.52" speed="12.40" speedRelative="0.89" departed="0" arrived="0" entered="1" left="1" laneChangedFrom="0" laneChangedTo="0" flow="7.20"/>
        <edge id="-1156298789" sampledSeconds="5.11" traveltime="6.48" overlapTraveltime="7.15" density="0.61" overlapDensity="0.80" laneDensity="0.61" occupancy="0.35" waitingTime="0.00" timeLoss="1.75" speed="2.49" speedRelative="0.90" departed="1" arrived="0" entered="0" left="1" laneChangedFrom="0" laneChangedTo="0" flow="4.34"/>
        <edge id="-1168178847#1" sampledSeconds="0.00" departed="0" arrived="0" entered="0" left="0" laneChangedFrom="0" laneChangedTo="0"/>
        <edge id="-1168178847#2" sampledSeconds="0.00" departed="0" arrived="0" entered="0" left="0" laneChangedFrom="0" laneChangedTo="0"/>
        <edge id="-1168178848#0" sampledSeconds="0.00" departed="0" arrived="0" entered="0" left="0" laneChangedFrom="0" laneChangedTo="0"/>
        <edge id="-1168178848#2" sampledSeconds="0.00" departed="0" arrived="0" entered="0" left="0" laneChangedFrom="0" laneChangedTo="0"/>
        <edge id="-1183372578" sampledSeconds="0.00" departed="0" arrived="0" entered="0" left="0" laneChangedFrom="0" laneChangedTo="0"/>
        <edge id="-1183372579#0" sampledSeconds="95.22" traveltime="3.62" overlapTraveltime="4.54" density="133.33" overlapDensity="133.33" laneDensity="133.33" occupancy="11.39" waitingTime="70.96" timeLoss="87.49" speed="1.14" speedRelative="0.08" departed="1" arrived="0" entered="20" left="21" laneChangedFrom="0" laneChangedTo="0" flow="26.52"/>
        <edge id="-1183372579#1" sampledSeconds="16.66" traveltime="0.89" overlapTraveltime="1.67" density="4.77" overlapDensity="8.91" laneDensity="4.77" occupancy="2.03" waitingTime="2.00" timeLoss="10.45" speed="5.25" speedRelative="0.38" departed="0" arrived="0" entered="10" left="10" laneChangedFrom="0" laneChangedTo="0" flow="72.00"/>
        <edge id="-1183372579#2" sampledSeconds="24.11" traveltime="1.76" overlapTraveltime="2.41" density="2.44" overlapDensity="3.34" laneDensity="2.44" occupancy="1.29" waitingTime="0.00" timeLoss="10.31" speed="8.06" speedRelative="0.58" departed="0" arrived="0" entered="10" left="10" laneChangedFrom="0" laneChangedTo="0" flow="72.00"/>
        <edge id="-1184184956#1" sampledSeconds="0.00" departed="0" arrived="0" entered="0" left="0" laneChangedFrom="0" laneChangedTo="0"/>
        <edge id="-1202565698" sampledSeconds="484.46" traveltime="48.62" overlapTraveltime="51.11" density="9.89" overlapDensity="10.43" laneDensity="9.89" occupancy="5.08" waitingTime="0.00" timeLoss="145.13" speed="1.92" speedRelative="0.69" departed="10" arrived="0" entered="0" left="10" laneChangedFrom="0" laneChangedTo="0" flow="68.05"/>
        <edge id="-1224538501" sampledSeconds="0.00" departed="0" arrived="0" entered="0" left="0" laneChangedFrom="0" laneChangedTo="0"/>
        <edge id="-1224538514" sampledSeconds="0.00" departed="0" arrived="0" entered="0" left="0" laneChangedFrom="0" laneChangedTo="0"/>
        <edge id="-1308629005" sampledSeconds="50.41" traveltime="5.08" overlapTraveltime="5.65" density="2.11" overlapDensity="2.38" laneDensity="2.11" occupancy="1.13" waitingTime="0.00" timeLoss="19.56" speed="8.37" speedRelative="0.60" departed="10" arrived="0" entered="0" left="10" laneChangedFrom="0" laneChangedTo="0" flow="63.31"/>
        <edge id="-1308629011" sampledSeconds="0.00" departed="0" arrived="0" entered="0" left="0" laneChangedFrom="0" laneChangedTo="0"/>
        <edge id="-1308629012" sampledSeconds="0.00" departed="0" arrived="0" entered="0" left="0" laneChangedFrom="0" laneChangedTo="0"/>
        <edge id="-1308629017#1" sampledSeconds="76.43" traveltime="6.86" overlapTraveltime="7.64" density="2.52" overlapDensity="2.81" laneDensity="2.52" occupancy="1.29" waitingTime="0.00" timeLoss="29.61" speed="7.77" speedRelative="0.56" departed="0" arrived="0" entered="10" left="10" laneChangedFrom="0" laneChangedTo="0" flow="72.00"/>
        <edge id="-1308629017#3" sampledSeconds="26.84" traveltime="2.29" overlapTraveltime="2.68" density="1.64" overlapDensity="1.92" laneDensity="1.64" occupancy="0.81" waitingTime="0.00" timeLoss="3.45" speed="12.27" speedRelative="0.88" departed="0" arrived="0" entered="10" left="10" laneChangedFrom="0" laneChangedTo="0" flow="72.00"/>
        <edge id="-1308629017#4" sampledSeconds="22.42" traveltime="2.49" overlapTraveltime="3.00" density="2.18" overlapDensity="2.96" laneDensity="2.18" occupancy="1.29" waitingTime="0.00" timeLoss="11.72" speed="6.72" speedRelative="0.48" departed="10" arrived="0" entered="0" left="10" laneChangedFrom="0" laneChangedTo="0" flow="47.79"/>
        <edge id="-1347077889#1" sampledSeconds="71.54" traveltime="5.82" overlapTraveltime="7.15" density="13.75" overlapDensity="16.89" laneDensity="13.75" occupancy="5.50" waitingTime="23.00" timeLoss="55.59" speed="1.88" speedRelative="0.14" departed="0" arrived="0" entered="10" left="10" laneChangedFrom="0" laneChangedTo="0" flow="72.00"/>
        <edge id="-1347249235" sampledSeconds="0.00" departed="0" arrived="0" entered="0" left="0" laneChangedFrom="0" laneChangedTo="0"/>
        <edge id="-1349935083" sampledSeconds="0.00" departed="0" arrived="0" entered="0" left="0" laneChangedFrom="0" laneChangedTo="0"/>
        <edge id="-135997372#2" sampledSeconds="257.35" traveltime="10.72" overlapTraveltime="11.70" density="5.63" overlapDensity="6.14" laneDensity="5.63" occupancy="2.86" waitingTime="0.00" timeLoss="96.57" speed="7.59" speedRelative="0.55" departed="0" arrived="0" entered="22" left="22" laneChangedFrom="0" laneChangedTo="0" flow="158.40"/>
        <edge id="-1369024077#1" sampledSeconds="745.93" traveltime="33.06" overlapTraveltime="34.21" density="27.76" overlapDensity="28.63" laneDensity="27.76" occupancy="13.90" waitingTime="501.00" timeLoss="659.10" speed="1.67" speedRelative="0.12" departed="0" arrived="0" entered="22" left="21" laneChangedFrom="0" laneChangedTo="0" flow="157.55"/>
        <edge id="-142321163#2" sampledSeconds="0.00" departed="0" arrived="0" entered="0" left="0" laneChangedFrom="0" laneChangedTo="0"/>
        <edge id="-1427058939#0" sampledSeconds="0.00" departed="0" arrived="0" entered="0" left="0" laneChangedFrom="0" laneChangedTo="0"/>
        <edge id="-1427058939#1" sampledSeconds="0.00" departed="0" arrived="0" entered="0" left="0" laneChangedFrom="0" laneChangedTo="0"/>
        <edge id="-1435936210#1" sampledSeconds="0.00" departed="0" arrived="0" entered="0" left="0" laneChangedFrom="0" laneChangedTo="0"/>
        <edge id="-1494503429" sampledSeconds="0.00" departed="0" arrived="0" entered="0" left="0" laneChangedFrom="0" laneChangedTo="0"/>
        <edge id="-172955372#0" sampledSeconds="1032.64" traveltime="20.18" overlapTraveltime="22.87" density="30.79" overlapDensity="34.68" laneDensity="30.79" occupancy="15.69" waitingTime="266.00" timeLoss="901.85" speed="2.82" speedRelative="0.13" departed="0" arrived="0" entered="48" left="42" laneChangedFrom="0" laneChangedTo="0" flow="327.20"/>
        <edge id="-172955372#2" sampledSeconds="133.57" traveltime="3.07" overlapTraveltime="3.93" density="16.54" overlapDensity="21.20" laneDensity="16.54" occupancy="8.21" waitingTime="23.00" timeLoss="107.01" speed="4.48" speedRelative="0.20" departed="0" arrived="0" entered="34" left="34" laneChangedFrom="0" laneChangedTo="0" flow="244.80"/>
        <edge id="-172955372#3" sampledSeconds="7.00" traveltime="2.74" overlapTraveltime="3.50" density="0.43" overlapDensity="0.56" laneDensity="0.43" occupancy="0.23" waitingTime="0.00" timeLoss="2.75" speed="8.63" speedRelative="0.39" departed="0" arrived="0" entered="2" left="2" laneChangedFrom="0" laneChangedTo="0" flow="14.40"/>
        <edge id="-172955372#7" sampledSeconds="7.78" traveltime="7.77" overlapTraveltime="8.03" density="0.09" overlapDensity="0.10" laneDensity="0.09" occupancy="0.05" waitingTime="0.00" timeLoss="0.27" speed="20.92" speedRelative="0.94" departed="1" arrived="0" entered="0" left="1" laneChangedFrom="0" laneChangedTo="0" flow="6.97"/>
        <edge id="-173435223#0" sampledSeconds="0.00" departed="0" arrived="0" entered="0" left="0" laneChangedFrom="0" laneChangedTo="0"/>
        <edge id="-173470557#0" sampledSeconds="0.00" departed="0" arrived="0" entered="0" left="0" laneChangedFrom="0" laneChangedTo="0"/>
        <edge id="-173470557#2" sampledSeconds="6.44" traveltime="5.85" overlapTraveltime="6.44" density="0.19" overlapDensity="0.21" laneDensity="0.19" occupancy="0.09" waitingTime="0.00" timeLoss="0.76" speed="10.48" speedRelative="0.75" departed="0" arrived="0" entered="1" left="1" laneChangedFrom="0" laneChangedTo="0" flow="7.20"/>
        <edge id="-173470558#1" sampledSeconds="7.38" traveltime="7.09" overlapTraveltime="7.85" density="0.16" overlapDensity="0.18" laneDensity="0.16" occupancy="0.09" waitingTime="0.00" timeLoss="1.03" speed="10.99" speedRelative="0.79" departed="1" arrived="0" entered="0" left="1" laneChangedFrom="0" laneChangedTo="0" flow="6.75"/>
        <edge id="-173470559#1" sampledSeconds="0.00" departed="0" arrived="0" entered="0" left="0" laneChangedFrom="0" laneChangedTo="0"/>
        <edge id="-180375723#12" sampledSeconds="0.00" departed="0" arrived="0" entered="0" left="0" laneChangedFrom="0" laneChangedTo="0"/>
        <edge id="-180375723#2" sampledSeconds="0.00" departed="0" arrived="0" entered="0" left="0" laneChangedFrom="0" laneChangedTo="0"/>
        <edge id="-180375723#7" sampledSeconds="0.00" departed="0" arrived="0" entered="0" left="0" laneChangedFrom="0" laneChangedTo="0"/>
        <edge id="-180375723#8" sampledSeconds="0.00" departed="0" arrived="0" entered="0" left="0" laneChangedFrom="0" laneChangedTo="0"/>
        <edge id="-208701339#1" sampledSeconds="0.00" departed="0" arrived="0" entered="0" left="0" laneChangedFrom="0" laneChangedTo="0"/>
        <edge id="-208701339#2" sampledSeconds="0.00" departed="0" arrived="0" entered="0" left="0" laneChangedFrom="0" laneChangedTo="0"/>
        <edge id="-213087098#2" sampledSeconds="0.00" departed="0" arrived="0" entered="0" left="0" laneChangedFrom="0" laneChangedTo="0"/>
        <edge id="-213087110#1" sampledSeconds="0.00" departed="0" arrived="0" entered="0" left="0" laneChangedFrom="0" laneChangedTo="0"/>
        <edge id="-226972108#3" sampledSeconds="0.00" departed="0" arrived="0" entered="0" left="0" laneChangedFrom="0" laneChangedTo="0"/>
        <edge id="-23029715#5" sampledSeconds="247.95" traveltime="23.83" overlapTraveltime="24.80" density="2.66" overlapDensity="2.77" laneDensity="2.66" occupancy="1.34" waitingTime="37.00" timeLoss="103.48" speed="7.43" speedRelative="0.53" departed="0" arrived="0" entered="10" left="10" laneChangedFrom="0" laneChangedTo="0" flow="72.00"/>
        <edge id="-27946060#0" sampledSeconds="0.00" departed="0" arrived="0" entered="0" left="0" laneChangedFrom="0" laneChangedTo="0"/>
        <edge id="-27946060#1" sampledSeconds="0.00" departed="0" arrived="0" entered="0" left="0" laneChangedFrom="0" laneChangedTo="0"/>
        <edge id="-27946060#3" sampledSeconds="0.00" departed="0" arrived="0" entered="0" left="0" laneChangedFrom="0" laneChangedTo="0"/>
        <edge id="-27946077#7" sampledSeconds="0.00" departed="0" arrived="0" entered="0" left="0" laneChangedFrom="0" laneChangedTo="0"/>
        <edge id="-28126801#1" sampledSeconds="598.29" traveltime="7.90" overlapTraveltime="8.81" density="13.98" overlapDensity="15.57" laneDensity="13.98" occupancy="7.19" waitingTime="2.00" timeLoss="161.40" speed="9.29" speedRelative="0.67" departed="0" arrived="0" entered="68" left="67" laneChangedFrom="0" laneChangedTo="0" flow="489.42"/>
        <edge id="-28126801#10" sampledSeconds="24.36" traveltime="0.75" overlapTraveltime="1.16" density="3.67" overlapDensity="5.67" laneDensity="3.67" occupancy="1.79" waitingTime="0.00" timeLoss="3.60" speed="11.72" speedRelative="0.84" departed="0" arrived="0" entered="21" left="21" laneChangedFrom="0" laneChangedTo="0" flow="151.20"/>
        <edge id="-28126801#12" sampledSeconds="34.50" traveltime="0.90" overlapTraveltime="1.64" density="10.66" overlapDensity="19.49" laneDensity="10.66" occupancy="4.56" waitingTime="5.00" timeLoss="21.46" speed="5.20" speedRelative="0.37" departed="0" arrived="0" entered="21" left="21" laneChangedFrom="0" laneChangedTo="0" flow="151.20"/>
        <edge id="-28126801#13" sampledSeconds="51.09" traveltime="1.78" overlapTraveltime="2.43" density="5.21" overlapDensity="7.11" laneDensity="5.21" occupancy="2.75" waitingTime="2.00" timeLoss="21.50" speed="7.96" speedRelative="0.57" departed="0" arrived="0" entered="21" left="21" laneChangedFrom="0" laneChangedTo="0" flow="151.20"/>
        <edge id="-28126801#16" sampledSeconds="94.59" traveltime="3.85" overlapTraveltime="4.50" density="4.95" overlapDensity="5.79" laneDensity="4.95" occupancy="2.56" waitingTime="1.00" timeLoss="37.02" speed="8.37" speedRelative="0.60" departed="0" arrived="0" entered="21" left="21" laneChangedFrom="0" laneChangedTo="0" flow="151.20"/>
        <edge id="-28126801#19" sampledSeconds="120.01" traveltime="5.32" overlapTraveltime="5.71" density="3.46" overlapDensity="3.71" laneDensity="3.46" occupancy="1.71" waitingTime="0.00" timeLoss="13.68" speed="12.18" speedRelative="0.88" departed="0" arrived="0" entered="21" left="21" laneChangedFrom="0" laneChangedTo="0" flow="151.20"/>
        <edge id="-28126801#2" sampledSeconds="88.91" traveltime="1.14" overlapTraveltime="1.57" density="10.56" overlapDensity="14.50" laneDensity="10.56" occupancy="5.15" waitingTime="0.00" timeLoss="19.18" speed="11.01" speedRelative="0.79" departed="1" arrived="0" entered="57" left="57" laneChangedFrom="0" laneChangedTo="0" flow="407.66"/>
        <edge id="-28126801#3" sampledSeconds="506.97" traveltime="12.37" overlapTraveltime="14.48" density="21.96" overlapDensity="25.72" laneDensity="21.96" occupancy="11.53" waitingTime="140.00" timeLoss="395.93" speed="3.07" speedRelative="0.22" departed="0" arrived="0" entered="35" left="35" laneChangedFrom="0" laneChangedTo="0" flow="252.00"/>
        <edge id="-28126801#5" sampledSeconds="66.56" traveltime="1.53" overlapTraveltime="2.15" density="11.27" overlapDensity="15.79" laneDensity="11.27" occupancy="5.64" waitingTime="13.00" timeLoss="37.07" speed="6.26" speedRelative="0.45" departed="0" arrived="0" entered="31" left="31" laneChangedFrom="0" laneChangedTo="0" flow="223.20"/>
        <edge id="-28126801#6" sampledSeconds="95.06" traveltime="2.08" overlapTraveltime="2.82" density="12.17" overlapDensity="16.93" laneDensity="12.17" occupancy="6.61" waitingTime="8.00" timeLoss="51.77" speed="5.75" speedRelative="0.41" departed="10" arrived="6" entered="28" left="31" laneChangedFrom="0" laneChangedTo="0" flow="236.92"/>