<?xml version="1.0" encoding="UTF-8"?>

<!-- generated on 2026-04-17T10:50:27.271504+05:30 by Eclipse SUMO GUI 1.26.0
<sumoConfiguration xmlns:xsi="http://www.w3.org/2001/XMLSchema-instance" xsi:noNamespaceSchemaLocation="http://sumo.dlr.de/xsd/sumoConfiguration.xsd">

    <input>
        <net-file value="sumo_files/real_map/osm.net.xml.gz"/>
        <route-files value="sumo_files/real_map/osm.passenger.trips.xml"/>
        <additional-files value="sumo_files/real_map/osm.poly.xml.gz,sumo_files/real_map/output.add.xml"/>
    </input>

    <output>
        <tripinfo-output value="sumo_files/real_map/tripinfos.xml"/>
        <statistic-output value="sumo_files/real_map/stats.xml"/>
    </output>

    <processing>
        <ignore-route-errors value="true"/>
        <tls.actuated.jam-threshold value="30"/>
    </processing>

    <routing>
        <device.rerouting.adaptation-steps value="18"/>
        <device.rerouting.adaptation-interval value="10"/>
    </routing>

    <report>
        <verbose value="true"/>
        <duration-log.statistics value="true"/>
        <no-step-log value="true"/>
    </report>

    <traci_server>
        <remote-port value="61595"/>
    </traci_server>

    <gui_only>
        <gui-settings-file value="sumo_files/real_map/osm.view.xml"/>
    </gui_only>

</sumoConfiguration>
-->

<tripinfos xmlns:xsi="http://www.w3.org/2001/XMLSchema-instance" xsi:noNamespaceSchemaLocation="http://sumo.dlr.de/xsd/tripinfo_file.xsd">
    <tripinfo id="veh7" depart="24.00" departLane="-758967734#0_0" departPos="5.10" departSpeed="0.00" departDelay="0.89" arrival="80.00" arrivalLane="-37763930#1_0" arrivalPos="98.85" arrivalSpeed="12.07" duration="56.00" routeLength="458.75" waitingTime="0.00" waitingCount="0" stopTime="0.00" timeLoss="10.10" rerouteNo="1" devices="tripinfo_veh7 routing_veh7" vType="veh_passenger" speedFactor="0.89" vaporized=""/>
    <tripinfo id="veh13" depart="43.00" departLane="461556535#0_3" departPos="5.10" departSpeed="7.79" departDelay="0.07" arrival="117.00" arrivalLane="23029281#4_0" arrivalPos="213.19" arrivalSpeed="24.84" duration="74.00" routeLength="811.78" waitingTime="0.00" waitingCount="0" stopTime="0.00" timeLoss="8.85" rerouteNo="1" devices="tripinfo_veh13 routing_veh13" vType="veh_passenger" speedFactor="1.12" vaporized=""/>
    <tripinfo id="veh4" depart="14.00" departLane="23029705#0_0" departPos="5.10" departSpeed="0.00" departDelay="0.79" arrival="118.00" arrivalLane="173470558#0_0" arrivalPos="81.04" arrivalSpeed="13.88" duration="104.00" routeLength="844.87" waitingTime="0.00" waitingCount="0" stopTime="0.00" timeLoss="15.13" rerouteNo="1" devices="tripinfo_veh4 routing_veh4" vType="veh_passenger" speedFactor="1.03" vaporized=""/>
    <tripinfo id="veh6" depart="20.00" departLane="37763917#6_0" departPos="3.86" departSpeed="0.00" departDelay="0.19" arrival="129.00" arrivalLane="28137491#1_0" arrivalPos="502.71" arrivalSpeed="28.00" duration="109.00" routeLength="1515.14" waitingTime="2.00" waitingCount="1" stopTime="0.00" timeLoss="24.56" rerouteNo="1" devices="tripinfo_veh6 routing_veh6" vType="veh_passenger" speedFactor="1.05" vaporized=""/>
    <tripinfo id="veh25" depart="83.00" departLane="38773814#3_0" departPos="5.10" departSpeed="0.00" departDelay="0.45" arrival="162.00" arrivalLane="36913434#6_0" arrivalPos="365.57" arrivalSpeed="6.40" duration="79.00" routeLength="581.28" waitingTime="0.00" waitingCount="0" stopTime="0.00" timeLoss="9.36" rerouteNo="1" devices="tripinfo_veh25 routing_veh25" vType="veh_passenger" speedFactor="0.87" vaporized=""/>
    <tripinfo id="veh10" depart="34.00" departLane="37763920_0" departPos="5.10" departSpeed="0.00" departDelay="0.98" arrival="215.00" arrivalLane="328837820_0" arrivalPos="116.08" arrivalSpeed="14.65" duration="181.00" routeLength="1682.83" waitingTime="0.00" waitingCount="0" stopTime="0.00" timeLoss="32.28" rerouteNo="1" devices="tripinfo_veh10 routing_veh10" vType="veh_passenger" speedFactor="1.09" vaporized=""/>
    <tripinfo id="veh41" depart="136.00" departLane="760889232#0_0" departPos="5.10" departSpeed="26.59" departDelay="0.61" arrival="218.00" arrivalLane="464465211#0_2" arrivalPos="104.19" arrivalSpeed="20.50" duration="82.00" routeLength="1685.99" waitingTime="6.00" waitingCount="1" stopTime="0.00" timeLoss="16.18" rerouteNo="1" devices="tripinfo_veh41 routing_veh41" vType="veh_passenger" speedFactor="0.96" vaporized=""/>
    <tripinfo id="veh33" depart="109.00" departLane="1349935083_0" departPos="1.73" departSpeed="0.00" departDelay="0.03" arrival="227.00" arrivalLane="1093707706_0" arrivalPos="33.89" arrivalSpeed="15.14" duration="118.00" routeLength="1141.39" waitingTime="0.00" waitingCount="0" stopTime="0.00" timeLoss="17.79" rerouteNo="1" devices="tripinfo_veh33 routing_veh33" vType="veh_passenger" speedFactor="1.17" vaporized=""/>
    <tripinfo id="veh19" depart="63.00" departLane="-37763924#3_0" departPos="5.10" departSpeed="0.00" departDelay="0.26" arrival="236.00" arrivalLane="638541502#0_3" arrivalPos="36.86" arrivalSpeed="8.84" duration="173.00" routeLength="1698.28" waitingTime="5.00" waitingCount="2" stopTime="0.00" timeLoss="46.26" rerouteNo="1" devices="tripinfo_veh19 routing_veh19" vType="veh_passenger" speedFactor="1.16" vaporized=""/>
    <tripinfo id="veh53" depart="176.00" departLane="-1093707706_0" departPos="5.10" departSpeed="13.95" departDelay="0.99" arrival="242.00" arrivalLane="603115724#0_0" arrivalPos="155.79" arrivalSpeed="14.10" duration="66.00" routeLength="753.87" waitingTime="0.00" waitingCount="0" stopTime="0.00" timeLoss="23.62" rerouteNo="1" devices="tripinfo_veh53 routing_veh53" vType="veh_passenger" speedFactor="1.10" vaporized=""/>
    <tripinfo id="veh45" depart="149.00" departLane="1125542419#3_0" departPos="5.10" departSpeed="0.00" departDelay="0.41" arrival="244.00" arrivalLane="758944900#1_0" arrivalPos="0.20" arrivalSpeed="2.80" duration="95.00" routeLength="866.60" waitingTime="0.00" waitingCount="0" stopTime="0.00" timeLoss="27.54" rerouteNo="1" devices="tripinfo_veh45 routing_veh45" vType="veh_passenger" speedFactor="1.09" vaporized=""/>
    <tripinfo id="veh52" depart="172.00" departLane="-1014276813#0_0" departPos="5.10" departSpeed="0.00" departDelay="0.29" arrival="245.00" arrivalLane="1112419800_0" arrivalPos="139.32" arrivalSpeed="14.08" duration="73.00" routeLength="737.08" waitingTime="5.00" waitingCount="1" stopTime="0.00" timeLoss="18.80" rerouteNo="1" devices="tripinfo_veh52 routing_veh52" vType="veh_passenger" speedFactor="1.02" vaporized=""/>
    <tripinfo id="veh43" depart="142.00" departLane="239572010#3_2" departPos="5.10" departSpeed="0.00" departDelay="0.01" arrival="252.00" arrivalLane="172955372#4_0" arrivalPos="163.02" arrivalSpeed="22.32" duration="110.00" routeLength="1368.31" waitingTime="2.00" waitingCount="1" stopTime="0.00" timeLoss="32.66" rerouteNo="1" devices="tripinfo_veh43 routing_veh43" vType="veh_passenger" speedFactor="1.04" vaporized=""/>
    <tripinfo id="veh56" depart="185.00" departLane="464465211#0_2" departPos="5.10" departSpeed="0.00" departDelay="0.08" arrival="257.00" arrivalLane="72099280#0_0" arrivalPos="421.86" arrivalSpeed="24.50" duration="72.00" routeLength="1265.18" waitingTime="0.00" waitingCount="0" stopTime="0.00" timeLoss="18.20" rerouteNo="1" devices="tripinfo_veh56 routing_veh56" vType="veh_passenger" speedFactor="0.90" vaporized=""/>
    <tripinfo id="veh24" depart="80.00" departLane="133632534#0_2" departPos="5.10" departSpeed="0.00" departDelay="0.75" arrival="258.00" arrivalLane="27946093#0_0" arrivalPos="223.99" arrivalSpeed="18.27" duration="178.00" routeLength="1544.49" waitingTime="3.00" waitingCount="1" stopTime="0.00" timeLoss="32.97" rerouteNo="1" devices="tripinfo_veh24 routing_veh24" vType="veh_passenger" speedFactor="0.83" vaporized=""/>
    <tripinfo id="veh9" depart="30.00" departLane="401997649_0" departPos="5.10" departSpeed="2.38" departDelay="0.28" arrival="259.00" arrivalLane="23029701#0_0" arrivalPos="147.81" arrivalSpeed="4.86" duration="229.00" routeLength="1778.47" waitingTime="8.00" waitingCount="2" stopTime="0.00" timeLoss="50.19" rerouteNo="1" devices="tripinfo_veh9 routing_veh9" vType="veh_passenger" speedFactor="0.86" vaporized=""/>
    <tripinfo id="veh3" depart="10.00" departLane="-1094091829_0" departPos="5.10" departSpeed="3.01" departDelay="0.09" arrival="260.00" arrivalLane="-796846472#1_0" arrivalPos="32.93" arrivalSpeed="14.15" duration="250.00" routeLength="1233.49" waitingTime="9.00" waitingCount="2" stopTime="0.00" timeLoss="69.99" rerouteNo="1" devices="tripinfo_veh3 routing_veh3" vType="veh_passenger" speedFactor="1.08" vaporized=""/>
    <tripinfo id="veh27" depart="90.00" departLane="-553253474_0" departPos="5.10" departSpeed="13.18" departDelay="0.84" arrival="265.00" arrivalLane="1093707708#0_0" arrivalPos="52.15" arrivalSpeed="12.55" duration="175.00" routeLength="948.55" waitingTime="6.00" waitingCount="1" stopTime="0.00" timeLoss="53.23" rerouteNo="1" devices="tripinfo_veh27 routing_veh27" vType="veh_passenger" speedFactor="0.95" vaporized=""/>
    <tripinfo id="veh44" depart="146.00" departLane="-1183372579#0_0" departPos="0.20" departSpeed="0.00" departDelay="0.71" arrival="267.00" arrivalLane="124316745#13_0" arrivalPos="83.31" arrivalSpeed="7.49" duration="121.00" routeLength="1311.41" waitingTime="0.00" waitingCount="0" stopTime="0.00" timeLoss="22.79" rerouteNo="1" devices="tripinfo_veh44 routing_veh44" vType="veh_passenger" speedFactor="1.04" vaporized=""/>
    <tripinfo id="veh47" depart="156.00" departLane="1205171802#0_1" departPos="5.10" departSpeed="25.02" departDelay="0.80" arrival="272.00" arrivalLane="-720099000#1_0" arrivalPos="129.40" arrivalSpeed="12.27" duration="116.00" routeLength="1326.66" waitingTime="5.00" waitingCount="1" stopTime="0.00" timeLoss="19.51" rerouteNo="1" devices="tripinfo_veh47 routing_veh47" vType="veh_passenger" speedFactor="0.90" vaporized=""/>
    <tripinfo id="veh0" depart="0.00" departLane="23029691#0_1" departPos="5.10" departSpeed="0.00" departDelay="0.00" arrival="283.00" arrivalLane="-112028488_0" arrivalPos="96.61" arrivalSpeed="14.47" duration="283.00" routeLength="1997.18" waitingTime="18.00" waitingCount="1" stopTime="0.00" timeLoss="73.94" rerouteNo="1" devices="tripinfo_veh0 routing_veh0" vType="veh_passenger" speedFactor="1.06" vaporized=""/>
    <tripinfo id="veh66" depart="218.00" departLane="-758967733#0_0" departPos="5.10" departSpeed="0.00" departDelay="0.06" arrival="287.00" arrivalLane="23029284#11_0" arrivalPos="41.20" arrivalSpeed="24.08" duration="69.00" routeLength="715.58" waitingTime="0.00" waitingCount="0" stopTime="0.00" timeLoss="15.98" rerouteNo="1" devices="tripinfo_veh66 routing_veh66" vType="veh_passenger" speedFactor="0.92" vaporized=""/>
    <tripinfo id="veh66.1" depart="221.00" departLane="-758967733#0_0" departPos="5.10" departSpeed="0.00" departDelay="3.06" arrival="290.00" arrivalLane="23029284#11_0" arrivalPos="41.20" arrivalSpeed="23.12" duration="69.00" routeLength="715.58" waitingTime="0.00" waitingCount="0" stopTime="0.00" timeLoss="23.74" rerouteNo="1" devices="tripinfo_veh66.1 routing_veh66.1" vType="veh_passenger" speedFactor="1.09" vaporized=""/>
    <tripinfo id="veh66.2" depart="224.00" departLane="-758967733#0_0" departPos="5.10" departSpeed="0.00" departDelay="6.06" arrival="293.00" arrivalLane="23029284#11_0" arrivalPos="41.20" arrivalSpeed="23.55" duration="69.00" routeLength="715.58" waitingTime="0.00" waitingCount="0" stopTime="0.00" timeLoss="22.70" rerouteNo="1" devices="tripinfo_veh66.2 routing_veh66.2" vType="veh_passenger" speedFactor="1.06" vaporized=""/>
    <tripinfo id="veh66.3" depart="227.00" departLane="-758967733#0_0" departPos="5.10" departSpeed="0.00" departDelay="9.06" arrival="300.00" arrivalLane="23029284#11_0" arrivalPos="41.20" arrivalSpeed="23.78" duration="73.00" routeLength="715.58" waitingTime="0.00" waitingCount="0" stopTime="0.00" timeLoss="24.33" rerouteNo="1" devices="tripinfo_veh66.3 routing_veh66.3" vType="veh_passenger" speedFactor="1.01" vaporized=""/>
    <tripinfo id="veh5" depart="17.00" departLane="37763921#1_0" departPos="0.20" departSpeed="0.00" departDelay="0.49" arrival="302.00" arrivalLane="-1093707705#0_0" arrivalPos="73.86" arrivalSpeed="11.31" duration="285.00" routeLength="1899.10" waitingTime="42.00" waitingCount="5" stopTime="0.00" timeLoss="90.85" rerouteNo="1" devices="tripinfo_veh5 routing_veh5" vType="veh_passenger" speedFactor="0.83" vaporized=""/>
    <tripinfo id="veh66.4" depart="229.00" departLane="-758967733#0_0" departPos="5.10" departSpeed="0.00" departDelay="11.06" arrival="304.00" arrivalLane="23029284#11_0" arrivalPos="41.20" arrivalSpeed="22.54" duration="75.00" routeLength="715.58" waitingTime="0.00" waitingCount="0" stopTime="0.00" timeLoss="20.67" rerouteNo="1" devices="tripinfo_veh66.4 routing_veh66.4" vType="veh_passenger" speedFactor="0.91" vaporized=""/>
    <tripinfo id="veh66.5" depart="232.00" departLane="-758967733#0_0" departPos="5.10" departSpeed="0.00" departDelay="14.06" arrival="307.00" arrivalLane="23029284#11_0" arrivalPos="41.20" arrivalSpeed="25.60" duration="75.00" routeLength="715.58" waitingTime="0.00" waitingCount="0" stopTime="0.00" timeLoss="31.40" rerouteNo="1" devices="tripinfo_veh66.5 routing_veh66.5" vType="veh_passenger" speedFactor="1.12" vaporized=""/>
    <tripinfo id="veh66.6" depart="235.00" departLane="-758967733#0_0" departPos="5.10" departSpeed="0.00" departDelay="17.06" arrival="312.00" arrivalLane="23029284#11_0" arrivalPos="41.20" arrivalSpeed="22.26" duration="77.00" routeLength="715.58" waitingTime="0.00" waitingCount="0" stopTime="0.00" timeLoss="32.94" rerouteNo="1" devices="tripinfo_veh66.6 routing_veh66.6" vType="veh_passenger" speedFactor="1.10" vaporized=""/>
    <tripinfo id="veh28" depart="93.00" departLane="-328837817_0" departPos="5.10" departSpeed="15.72" departDelay="0.54" arrival="316.00" arrivalLane="705023783#0_0" arrivalPos="220.28" arrivalSpeed="14.19" duration="223.00" routeLength="1174.71" waitingTime="9.00" waitingCount="1" stopTime="0.00" timeLoss="53.70" rerouteNo="1" devices="tripinfo_veh28 routing_veh28" vType="veh_passenger" speedFactor="1.13" vaporized=""/>
    <tripinfo id="veh17" depart="57.00" departLane="23029284#7_2" departPos="5.10" departSpeed="0.00" departDelay="0.86" arrival="317.00" arrivalLane="112657835#0_0" arrivalPos="141.41" arrivalSpeed="7.44" duration="260.00" routeLength="2418.18" waitingTime="18.00" waitingCount="2" stopTime="0.00" timeLoss="70.99" rerouteNo="1" devices="tripinfo_veh17 routing_veh17" vType="veh_passenger" speedFactor="0.94" vaporized=""/>
    <tripinfo id="veh71" depart="235.00" departLane="-377261618#0_0" departPos="5.10" departSpeed="0.00" departDelay="0.55" arrival="317.00" arrivalLane="27007398#15_0" arrivalPos="42.59" arrivalSpeed="15.35" duration="82.00" routeLength="994.47" waitingTime="0.00" waitingCount="0" stopTime="0.00" timeLoss="19.06" rerouteNo="1" devices="tripinfo_veh71 routing_veh71" vType="veh_passenger" speedFactor="1.13" vaporized=""/>
    <tripinfo id="veh12" depart="40.00" departLane="37763929#2_0" departPos="5.10" departSpeed="0.00" departDelay="0.37" arrival="319.00" arrivalLane="23029710#0_0" arrivalPos="345.33" arrivalSpeed="22.96" duration="279.00" routeLength="2886.86" waitingTime="27.00" waitingCount="4" stopTime="0.00" timeLoss="92.33" rerouteNo="1" devices="tripinfo_veh12 routing_veh12" vType="veh_passenger" speedFactor="1.05" vaporized=""/>
    <tripinfo id="veh66.7" depart="238.00" departLane="-758967733#0_0" departPos="5.10" departSpeed="0.00" departDelay="20.06" arrival="320.00" arrivalLane="23029284#11_0" arrivalPos="41.20" arrivalSpeed="23.60" duration="82.00" routeLength="715.58" waitingTime="1.00" waitingCount="1" stopTime="0.00" timeLoss="36.60" rerouteNo="1" devices="tripinfo_veh66.7 routing_veh66.7" vType="veh_passenger" speedFactor="1.06" vaporized=""/>
    <tripinfo id="veh66.8" depart="241.00" departLane="-758967733#0_0" departPos="5.10" departSpeed="0.00" departDelay="23.06" arrival="328.00" arrivalLane="23029284#11_0" arrivalPos="41.20" arrivalSpeed="24.39" duration="87.00" routeLength="715.58" waitingTime="3.00" waitingCount="2" stopTime="0.00" timeLoss="34.92" rerouteNo="1" devices="tripinfo_veh66.8 routing_veh66.8" vType="veh_passenger" speedFactor="0.96" vaporized=""/>
    <tripinfo id="veh77" depart="255.00" departLane="28126801#2_0" departPos="5.10" departSpeed="0.00" departDelay="0.74" arrival="328.00" arrivalLane="27007398#8_0" arrivalPos="222.80" arrivalSpeed="14.60" duration="73.00" routeLength="891.16" waitingTime="0.00" waitingCount="0" stopTime="0.00" timeLoss="16.97" rerouteNo="1" devices="tripinfo_veh77 routing_veh77" vType="veh_passenger" speedFactor="1.11" vaporized=""/>
    <tripinfo id="veh77.1" depart="258.00" departLane="28126801#2_0" departPos="5.10" departSpeed="0.00" departDelay="3.74" arrival="332.00" arrivalLane="27007398#8_0" arrivalPos="222.80" arrivalSpeed="14.75" duration="74.00" routeLength="891.16" waitingTime="0.00" waitingCount="0" stopTime="0.00" timeLoss="15.10" rerouteNo="1" devices="tripinfo_veh77.1 routing_veh77.1" vType="veh_passenger" speedFactor="1.07" vaporized=""/>
    <tripinfo id="veh66.9" depart="244.00" departLane="-758967733#0_0" departPos="5.10" departSpeed="0.00" departDelay="26.06" arrival="333.00" arrivalLane="23029284#11_0" arrivalPos="41.20" arrivalSpeed="24.79" duration="89.00" routeLength="715.58" waitingTime="2.00" waitingCount="1" stopTime="0.00" timeLoss="38.30" rerouteNo="1" devices="tripinfo_veh66.9 routing_veh66.9" vType="veh_passenger" speedFactor="0.97" vaporized=""/>
    <tripinfo id="veh62" depart="205.00" departLane="-28126801#2_0" departPos="5.10" departSpeed="0.00" departDelay="0.27" arrival="336.00" arrivalLane="1101945532_2" arrivalPos="56.28" arrivalSpeed="27.66" duration="131.00" routeLength="1607.30" waitingTime="0.00" waitingCount="0" stopTime="0.00" timeLoss="26.96" rerouteNo="1" devices="tripinfo_veh62 routing_veh62" vType="veh_passenger" speedFactor="1.02" vaporized=""/>
    <tripinfo id="veh30" depart="100.00" departLane="23029706_0" departPos="5.10" departSpeed="0.00" departDelay="0.94" arrival="346.00" arrivalLane="1168178847#2_0" arrivalPos="20.96" arrivalSpeed="15.76" duration="246.00" routeLength="1098.90" waitingTime="107.00" waitingCount="2" stopTime="0.00" timeLoss="133.61" rerouteNo="1" devices="tripinfo_veh30 routing_veh30" vType="veh_passenger" speedFactor="1.18" vaporized=""/>
    <tripinfo id="veh77.2" depart="261.00" departLane="28126801#2_0" departPos="5.10" departSpeed="0.00" departDelay="6.74" arrival="347.00" arrivalLane="27007398#8_0" arrivalPos="222.80" arrivalSpeed="13.92" duration="86.00" routeLength="891.16" waitingTime="6.00" waitingCount="1" stopTime="0.00" timeLoss="24.71" rerouteNo="1" devices="tripinfo_veh77.2 routing_veh77.2" vType="veh_passenger" speedFactor="1.02" vaporized=""/>
    <tripinfo id="veh77.3" depart="264.00" departLane="28126801#2_0" departPos="5.10" departSpeed="0.00" departDelay="9.74" arrival="350.00" arrivalLane="27007398#8_0" arrivalPos="222.80" arrivalSpeed="12.96" duration="86.00" routeLength="891.16" waitingTime="2.00" waitingCount="1" stopTime="0.00" timeLoss="23.64" rerouteNo="1" devices="tripinfo_veh77.3 routing_veh77.3" vType="veh_passenger" speedFactor="1.00" vaporized=""/>
    <tripinfo id="veh77.4" depart="269.00" departLane="28126801#2_0" departPos="5.10" departSpeed="0.00" departDelay="14.74" arrival="353.00" arrivalLane="27007398#8_0" arrivalPos="222.80" arrivalSpeed="12.27" duration="84.00" routeLength="891.16" waitingTime="0.00" waitingCount="0" stopTime="0.00" timeLoss="19.17" rerouteNo="1" devices="tripinfo_veh77.4 routing_veh77.4" vType="veh_passenger" speedFactor="0.97" vaporized=""/>
    <tripinfo id="veh42" depart="139.00" departLane="-1089717992_0" departPos="5.10" departSpeed="3.04" departDelay="0.31" arrival="360.00" arrivalLane="328837817_0" arrivalPos="60.73" arrivalSpeed="14.31" duration="221.00" routeLength="1657.08" waitingTime="0.00" waitingCount="0" stopTime="0.00" timeLoss="49.52" rerouteNo="1" devices="tripinfo_veh42 routing_veh42" vType="veh_passenger" speedFactor="1.09" vaporized=""/>
    <tripinfo id="veh77.5" depart="272.00" departLane="28126801#2_0" departPos="5.10" departSpeed="0.00" departDelay="17.74" arrival="364.00" arrivalLane="27007398#8_0" arrivalPos="222.80" arrivalSpeed="12.69" duration="92.00" routeLength="891.16" waitingTime="4.00" waitingCount="1" stopTime="0.00" timeLoss="27.03" rerouteNo="1" devices="tripinfo_veh77.5 routing_veh77.5" vType="veh_passenger" speedFactor="0.96" vaporized=""/>
    <tripinfo id="veh77.6" depart="275.00" departLane="28126801#2_0" departPos="5.10" departSpeed="0.00" departDelay="20.74" arrival="365.00" arrivalLane="27007398#8_1" arrivalPos="222.80" arrivalSpeed="12.39" duration="90.00" routeLength="891.16" waitingTime="3.00" waitingCount="1" stopTime="0.00" timeLoss="26.63" rerouteNo="1" devices="tripinfo_veh77.6 routing_veh77.6" vType="veh_passenger" speedFactor="0.98" vaporized=""/>
    <tripinfo id="veh51" depart="169.00" departLane="36332256#0_0" departPos="5.10" departSpeed="16.24" departDelay="0.59" arrival="371.00" arrivalLane="172920283-AddedOffRampEdge_0" arrivalPos="94.39" arrivalSpeed="21.09" duration="202.00" routeLength="2602.60" waitingTime="6.00" waitingCount="2" stopTime="0.00" timeLoss="64.57" rerouteNo="1" devices="tripinfo_veh51 routing_veh51" vType="veh_passenger" speedFactor="1.17" vaporized=""/>
    <tripinfo id="veh77.7" depart="278.00" departLane="28126801#2_0" departPos="5.10" departSpeed="0.00" departDelay="23.74" arrival="374.00" arrivalLane="27007398#8_0" arrivalPos="222.80" arrivalSpeed="14.12" duration="96.00" routeLength="891.16" waitingTime="11.00" waitingCount="2" stopTime="0.00" timeLoss="40.02" rerouteNo="1" devices="tripinfo_veh77.7 routing_veh77.7" vType="veh_passenger" speedFactor="1.10" vaporized=""/>
    <tripinfo id="veh77.8" depart="281.00" departLane="28126801#2_0" departPos="5.10" departSpeed="0.00" departDelay="26.74" arrival="378.00" arrivalLane="27007398#8_0" arrivalPos="222.80" arrivalSpeed="13.38" duration="97.00" routeLength="891.16" waitingTime="8.00" waitingCount="2" stopTime="0.00" timeLoss="36.77" rerouteNo="1" devices="tripinfo_veh77.8 routing_veh77.8" vType="veh_passenger" speedFactor="1.04" vaporized=""/>
    <tripinfo id="veh20" depart="67.00" departLane="23029701#9_0" departPos="5.10" departSpeed="0.00" departDelay="0.96" arrival="383.00" arrivalLane="23029705#0_0" arrivalPos="77.00" arrivalSpeed="22.57" duration="316.00" routeLength="2390.47" waitingTime="25.00" waitingCount="2" stopTime="0.00" timeLoss="68.51" rerouteNo="1" devices="tripinfo_veh20 routing_veh20" vType="veh_passenger" speedFactor="1.02" vaporized=""/>
    <tripinfo id="veh85" depart="281.00" departLane="760889232#0_0" departPos="5.10" departSpeed="28.30" departDelay="0.32" arrival="390.00" arrivalLane="603115724#0_0" arrivalPos="155.79" arrivalSpeed="12.97" duration="109.00" routeLength="2037.44" waitingTime="5.00" waitingCount="1" stopTime="0.00" timeLoss="26.46" rerouteNo="1" devices="tripinfo_veh85 routing_veh85" vType="veh_passenger" speedFactor="1.02" vaporized=""/>
    <tripinfo id="veh39" depart="129.00" departLane="-112028489_0" departPos="5.10" departSpeed="12.51" departDelay="0.22" arrival="391.00" arrivalLane="1150927562#0_2" arrivalPos="519.27" arrivalSpeed="24.17" duration="262.00" routeLength="2347.14" waitingTime="48.00" waitingCount="2" stopTime="0.00" timeLoss="85.03" rerouteNo="1" devices="tripinfo_veh39 routing_veh39" vType="veh_passenger" speedFactor="0.90" vaporized=""/>
    <tripinfo id="veh77.9" depart="287.00" departLane="28126801#2_0" departPos="5.10" departSpeed="0.00" departDelay="32.74" arrival="394.00" arrivalLane="27007398#8_0" arrivalPos="222.80" arrivalSpeed="13.08" duration="107.00" routeLength="891.16" waitingTime="13.00" waitingCount="2" stopTime="0.00" timeLoss="45.31" rerouteNo="1" devices="tripinfo_veh77.9 routing_veh77.9" vType="veh_passenger" speedFactor="1.00" vaporized=""/>
    <tripinfo id="veh26" depart="86.00" departLane="-362418047#1_0" departPos="0.51" departSpeed="0.00" departDelay="0.15" arrival="395.00" arrivalLane="-1125385914_0" arrivalPos="69.50" arrivalSpeed="11.71" duration="309.00" routeLength="2886.31" waitingTime="7.00" waitingCount="2" stopTime="0.00" timeLoss="66.98" rerouteNo="1" devices="tripinfo_veh26 routing_veh26" vType="veh_passenger" speedFactor="0.92" vaporized=""/>
    <tripinfo id="veh14" depart="47.00" departLane="27007398#0_2" departPos="5.10" departSpeed="0.00" departDelay="0.77" arrival="399.00" arrivalLane="-112657837#2_0" arrivalPos="65.97" arrivalSpeed="6.83" duration="352.00" routeLength="3033.75" waitingTime="12.00" waitingCount="2" stopTime="0.00" timeLoss="71.13" rerouteNo="1" devices="tripinfo_veh14 routing_veh14" vType="veh_passenger" speedFactor="0.99" vaporized=""/>
    <tripinfo id="veh78" depart="258.00" departLane="763405053_1" departPos="5.10" departSpeed="0.00" departDelay="0.44" arrival="401.00" arrivalLane="-28126801#6_0" arrivalPos="11.23" arrivalSpeed="8.02" duration="143.00" routeLength="916.19" waitingTime="24.00" waitingCount="4" stopTime="0.00" timeLoss="62.66" rerouteNo="1" devices="tripinfo_veh78 routing_veh78" vType="veh_passenger" speedFactor="1.10" vaporized=""/>
    <tripinfo id="veh68" depart="225.00" departLane="-112028491#3_0" departPos="5.10" departSpeed="14.02" departDelay="0.46" arrival="412.00" arrivalLane="23443806#8_1" arrivalPos="23.89" arrivalSpeed="10.81" duration="187.00" routeLength="1844.09" waitingTime="22.00" waitingCount="3" stopTime="0.00" timeLoss="65.56" rerouteNo="1" devices="tripinfo_veh68 routing_veh68" vType="veh_passenger" speedFactor="1.01" vaporized=""/>
    <tripinfo id="veh68.1" depart="226.00" departLane="-112028491#3_0" departPos="5.10" departSpeed="11.45" departDelay="1.46" arrival="415.00" arrivalLane="23443806#8_1" arrivalPos="23.89" arrivalSpeed="12.16" duration="189.00" routeLength="1844.09" waitingTime="19.00" waitingCount="3" stopTime="0.00" timeLoss="77.18" rerouteNo="1" devices="tripinfo_veh68.1 routing_veh68.1" vType="veh_passenger" speedFactor="1.10" vaporized=""/>
    <tripinfo id="veh78.1" depart="261.00" departLane="763405053_1" departPos="5.10" departSpeed="0.00" departDelay="3.44" arrival="415.00" arrivalLane="-28126801#6_0" arrivalPos="11.23" arrivalSpeed="10.75" duration="154.00" routeLength="916.19" waitingTime="13.00" waitingCount="2" stopTime="0.00" timeLoss="47.07" rerouteNo="1" devices="tripinfo_veh78.1 routing_veh78.1" vType="veh_passenger" speedFactor="0.83" vaporized=""/>
    <tripinfo id="veh78.2" depart="264.00" departLane="763405053_1" departPos="5.10" departSpeed="0.00" departDelay="6.44" arrival="429.00" arrivalLane="-28126801#6_0" arrivalPos="11.23" arrivalSpeed="9.70" duration="165.00" routeLength="916.19" waitingTime="38.00" waitingCount="4" stopTime="0.00" timeLoss="84.18" rerouteNo="1" devices="tripinfo_veh78.2 routing_veh78.2" vType="veh_passenger" speedFactor="1.09" vaporized=""/>
    <tripinfo id="veh78.3" depart="267.00" departLane="763405053_1" departPos="5.10" departSpeed="0.00" departDelay="9.44" arrival="432.00" arrivalLane="-28126801#6_0" arrivalPos="11.23" arrivalSpeed="10.81" duration="165.00" routeLength="916.19" waitingTime="32.00" waitingCount="4" stopTime="0.00" timeLoss="73.08" rerouteNo="1" devices="tripinfo_veh78.3 routing_veh78.3" vType="veh_passenger" speedFactor="0.97" vaporized=""/>
    <tripinfo id="veh96" depart="317.00" departLane="172955372#1_0" departPos="5.10" departSpeed="0.00" departDelay="0.00" arrival="433.00" arrivalLane="27007398#8_0" arrivalPos="222.80" arrivalSpeed="14.31" duration="116.00" routeLength="621.40" waitingTime="50.00" waitingCount="4" stopTime="0.00" timeLoss="78.32" rerouteNo="1" devices="tripinfo_veh96 routing_veh96" vType="veh_passenger" speedFactor="1.12" vaporized=""/>
    <tripinfo id="veh96.1" depart="321.00" departLane="172955372#1_0" departPos="5.10" departSpeed="0.00" departDelay="4.00" arrival="433.00" arrivalLane="27007398#8_2" arrivalPos="222.80" arrivalSpeed="15.80" duration="112.00" routeLength="621.40" waitingTime="45.00" waitingCount="4" stopTime="0.00" timeLoss="77.09" rerouteNo="1" devices="tripinfo_veh96.1 routing_veh96.1" vType="veh_passenger" speedFactor="1.19" vaporized=""/>
    <tripinfo id="veh96.2" depart="328.00" departLane="172955372#1_0" departPos="5.10" departSpeed="0.00" departDelay="11.00" arrival="437.00" arrivalLane="27007398#8_1" arrivalPos="222.80" arrivalSpeed="15.30" duration="109.00" routeLength="621.40" waitingTime="38.00" waitingCount="2" stopTime="0.00" timeLoss="71.09" rerouteNo="1" devices="tripinfo_veh96.2 routing_veh96.2" vType="veh_passenger" speedFactor="1.14" vaporized=""/>
    <tripinfo id="veh37" depart="123.00" departLane="-112657835#8_0" departPos="5.10" departSpeed="9.83" departDelay="0.82" arrival="439.00" arrivalLane="-1136281758#5_0" arrivalPos="97.49" arrivalSpeed="16.26" duration="316.00" routeLength="2239.62" waitingTime="37.00" waitingCount="3" stopTime="0.00" timeLoss="76.74" rerouteNo="1" devices="tripinfo_veh37 routing_veh37" vType="veh_passenger" speedFactor="1.18" vaporized=""/>
    <tripinfo id="veh78.4" depart="270.00" departLane="763405053_1" departPos="5.10" departSpeed="0.00" departDelay="12.44" arrival="441.00" arrivalLane="-28126801#6_0" arrivalPos="11.23" arrivalSpeed="12.62" duration="171.00" routeLength="916.19" waitingTime="44.00" waitingCount="4" stopTime="0.00" timeLoss="87.98" rerouteNo="1" devices="tripinfo_veh78.4 routing_veh78.4" vType="veh_passenger" speedFactor="1.07" vaporized=""/>